{
  "productProperties" : {
    "colour" : "black",
    "phaseTransition" : 80.0,
    "reactivity" : "Vapors may form explosive mixture with air.",
    "physicalState" : "gas",
    "flashPoint" : 21.0,
    "density" : 1.15,
    "pH" : 5,
    "odour" : "none"
  },
  "transportInformation" : {
    "dgClass" : "ADR - 8",
    "dgPack" : "ADR - III",
    "shippingName" : "ADR - TETRAETHYLENEPENTAMINE",
    "unNumber" : "ADR - UN2320"
  },
  "documents" : {
    "dueDiligence" : [ {
      "documentTitle" : "Cobald Mine A",
      "documentLocation" : "ftp://www.company.com/MyCompliance/Compliant02.PDF"
    } ],
    "technicalDocumentation" : [ {
      "documentTitle" : "Cobald Mine A",
      "documentLocation" : "ftp://www.company.com/MyCompliance/Compliant02.PDF"
    } ],
    "removalProcedure" : [ {
      "documentTitle" : "Cobald Mine A",
      "documentLocation" : "ftp://www.company.com/MyCompliance/Compliant02.PDF"
    } ],
    "sustainabilityReport" : [ {
      "documentTitle" : "Cobald Mine A",
      "documentLocation" : "ftp://www.company.com/MyCompliance/Compliant02.PDF"
    } ],
    "safetyDataSheet" : [ {
      "manufactureId" : "BPNL1234567890ZZ",
      "documentLanguage" : "eOMtThyhVNLWUZNRcBaQKxI",
      "documentLocation" : "ftp://www.company.com/MyCompliance/Compliant02.PDF",
      "documentVersion" : "yedUsFwdkelQbxeTeQOvaScfqIOOmaa",
      "otherInformation" : [ {
        "indicationChanges" : "Created 1.1.2000, Updated 24.3.2019",
        "authorSDS" : "Max Mustermann"
      } ],
      "provisioningCountry" : "GER"
    } ],
    "declarationOfConformity" : [ {
      "documentTitle" : "Cobald Mine A",
      "documentLocation" : "ftp://www.company.com/MyCompliance/Compliant02.PDF"
    } ]
  },
  "carbonFootprint" : {
    "crossSectoralStandardsUsed" : [ {
      "crossSectoralStandard" : "GHG Protocol Product standard"
    } ],
    "co2FootprintTotal" : 2.2,
    "productOrSectorSpecificRules" : [ {
      "operator" : "PEF",
      "ruleNames" : [ "JxkyvRnL", "RYtGKbgicZaHCBRQDSx" ],
      "otherOperatorName" : "NSF"
    } ]
  },
  "productComposition" : {
    "mixture" : [ {
      "composition" : [ {
        "chemicalName" : "Chemical A1",
        "chemicalPercentage" : "32.3%"
      } ],
      "chemicalNature" : "Mono constituent"
    } ],
    "substance" : [ {
      "composition" : [ {
        "chemicalName" : "Chemical A1",
        "chemicalPercentage" : "32.3%"
      } ],
      "chemicalNature" : "Mono constituent"
    } ]
  },
  "productIdentification" : {
    "localIdentifiers" : [ {
      "value" : "SN12345678",
      "key" : "PartInstanceID"
    } ],
    "tradeName" : "METHYLENEDIPHENYL (4,4'-MDI)",
    "productCode" : "615-104-00-9-DE",
    "substanceName" : "Sodium hypochlorite",
    "ecNumber" : "231-668-3",
    "indexNumber" : "011-002-00-6",
    "casNumber" : "7681-52-9",
    "reachRegistration" : "01-2119457558-25-1234"
  },
  "performanceProperties" : {
    "curingTime" : -2.9685363E38
  },
  "hazardsIdentification" : {
    "hazardousIngredients" : [ {
      "chemicalName" : "Chemical A1",
      "chemicalPercentage" : "32.3%"
    } ],
    "classificationGHS" : "Flam. Liq. 2, H225",
    "possibleHazards" : "Biohazard toxic to fish."
  },
  "regulatoryInformation" : {
    "limitations" : "Regulation (EC) No 1005/2009"
  },
  "application" : {
    "recommendedUse" : "Detergent",
    "usage" : "Industrial use in polymer production"
  },
  "supplier" : {
    "emergencyNumber" : "+49 696 43508409",
    "supplierId" : "BPNL1234567890ZZ"
  },
  "safetyMeasure" : {
    "personalPrecaution" : "Use personal protective equipment. Ensure adequate ventilation.",
    "exposureLimit" : [ {
      "chemicalName" : "Chemical A1",
      "chemicalPercentage" : "32.3%"
    } ],
    "firstAid" : "(a) immediate medical attention is required and if delayed effects can be expected after exposure.",
    "fireExtinguisher" : "High volume water jet",
    "technicalMeasures" : "Never contact with water or moisture. Avoid formation of aerosol."
  },
  "productDisposal" : {
    "wasteManagement" : "Contact waste disposal services.",
    "wasteInformation" : "D003: Reactivity"
  }
}